# vtk DataFile Version 3.0
time 1
ASCII
DATASET UNSTRUCTURED_GRID
POINTS 5064 float
0 1.47451e-15 0.02899 0 0.0695746 0.00770578 0 0 0.07 
0 0.0735 0 0 -0.002 0.07 0 0.012606 0.0329783 
0 0.0257999 0.0338385 0 0.0389775 0.0314712 0 0.0506877 0.0262869 
0 0.0612437 0.0181765 0 0.00618256 0.0313649 0 0.019177 0.0338069 
0 0.0325793 0.0330365 0 0.0451355 0.0291543 0 0.0564624 0.0223594 
0 0.0656886 0.0132468 0 0.0674334 0.0187811 0 0.0635675 0.0293116 
0 0.0578496 0.0394134 0 0.0507445 0.0482183 0 0.0423133 0.0557637 
0 0.0327479 0.0618674 0 0.022322 0.0663455 0 0.0113096 0.0690803 
0 0.0687404 0.0132196 0 0.0657509 0.024017 0 0.0608746 0.0345583 
0 0.0543989 0.044054 0 0.0465595 0.0522706 0 0.0376544 0.0590097 
0 0.0276258 0.0643181 0 0.0168713 0.0679364 0 0.00567345 0.0697697 
0 0.0713017 0.0046767 0 -0.001 0.07 0.0104724 1.47451e-15 0.0270324 
0.0195304 1.47451e-15 0.0214239 0.0259508 1.47451e-15 0.012922 0.0288663 1.47451e-15 0.00267486 
0.0278833 1.47451e-15 -0.00793349 0.0231345 1.47451e-15 -0.0174704 0.0152613 1.47451e-15 -0.0246478 
0.0053269 1.47451e-15 -0.0284964 -0.0053269 1.47451e-15 -0.0284964 -0.0152613 1.47451e-15 -0.0246478 
-0.0231345 1.47451e-15 -0.0174704 -0.0278833 1.47451e-15 -0.00793349 -0.0288663 1.47451e-15 0.00267486 
-0.0259508 1.47451e-15 0.012922 -0.0195304 1.47451e-15 0.0214239 -0.0104724 1.47451e-15 0.0270324 
0.0053269 1.47451e-15 0.0284964 0.0152613 1.47451e-15 0.0246478 0.0231345 1.47451e-15 0.0174704 
0.0278833 1.47451e-15 0.00793349 0.0288663 1.47451e-15 -0.00267486 0.0259508 1.47451e-15 -0.012922 
0.0195304 1.47451e-15 -0.0214239 0.0104724 1.47451e-15 -0.0270324 -9.32401e-18 1.47451e-15 -0.02899 
-0.0104724 1.47451e-15 -0.0270324 -0.0195304 1.47451e-15 -0.0214239 -0.0259508 1.47451e-15 -0.012922 
-0.0288663 1.47451e-15 -0.00267486 -0.0278833 1.47451e-15 0.00793349 -0.0231345 1.47451e-15 0.0174704 
-0.0152613 1.47451e-15 0.0246478 -0.0053269 1.47451e-15 0.0284964 0.00742927 0.0695746 -0.00204574 
-0.00640166 0.0695746 -0.00428927 0.00628838 0.0695746 0.0044537 0.00128635 0.0695746 -0.00759766 
-0.0069298 0.0695746 0.00337001 0.010433 -0.002 0.0692182 0.0206329 -0.002 0.0668901 
0.0303719 -0.002 0.0630678 0.0394324 -0.002 0.0578367 0.0476121 -0.002 0.0513136 
0.0547282 -0.002 0.0436443 0.0606218 -0.002 0.035 0.0651612 -0.002 0.0255739 
0.068245 -0.002 0.0155765 0.0698043 -0.002 0.00523111 0.0698043 -0.002 -0.00523111 
0.068245 -0.002 -0.0155765 0.0651612 -0.002 -0.0255739 0.0606218 -0.002 -0.035 
0.0547282 -0.002 -0.0436443 0.0476121 -0.002 -0.0513136 0.0394324 -0.002 -0.0578367 
0.0303719 -0.002 -0.0630678 0.0206329 -0.002 -0.0668901 0.010433 -0.002 -0.0692182 
-3.33376e-16 -0.002 -0.07 -0.010433 -0.002 -0.0692182 -0.0206329 -0.002 -0.0668901 
-0.0303719 -0.002 -0.0630678 -0.0394324 -0.002 -0.0578367 -0.0476121 -0.002 -0.0513136 
-0.0547282 -0.002 -0.0436443 -0.0606218 -0.002 -0.035 -0.0651612 -0.002 -0.0255739 
-0.068245 -0.002 -0.0155765 -0.0698043 -0.002 -0.00523111 -0.0698043 -0.002 0.00523111 
-0.068245 -0.002 0.0155765 -0.0651612 -0.002 0.0255739 -0.0606218 -0.002 0.035 
-0.0547282 -0.002 0.0436443 -0.0476121 -0.002 0.0513136 -0.0394324 -0.002 0.0578367 
-0.0303719 -0.002 0.0630678 -0.0206329 -0.002 0.0668901 -0.010433 -0.002 0.0692182 
0.00523111 -0.002 0.0698043 0.0155765 -0.002 0.068245 0.0255739 -0.002 0.0651612 
0.035 -0.002 0.0606218 0.0436443 -0.002 0.0547282 0.0513136 -0.002 0.0476121 
0.0578367 -0.002 0.0394324 0.0630678 -0.002 0.0303719 0.0668901 -0.002 0.0206329 
0.0692182 -0.002 0.010433 0.07 -0.002 -1.20059e-16 0.0692182 -0.002 -0.010433 
0.0668901 -0.002 -0.0206329 0.0630678 -0.002 -0.0303719 0.0578367 -0.002 -0.0394324 
0.0513136 -0.002 -0.0476121 0.0436443 -0.002 -0.0547282 0.035 -0.002 -0.0606218 
0.0255739 -0.002 -0.0651612 0.0155765 -0.002 -0.068245 0.00523111 -0.002 -0.0698043 
-0.00523111 -0.002 -0.0698043 -0.0155765 -0.002 -0.068245 -0.0255739 -0.002 -0.0651612 
-0.035 -0.002 -0.0606218 -0.0436443 -0.002 -0.0547282 -0.0513136 -0.002 -0.0476121 
-0.0578367 -0.002 -0.0394324 -0.0630678 -0.002 -0.0303719 -0.0668901 -0.002 -0.0206329 
-0.0692182 -0.002 -0.010433 -0.07 -0.002 2.35832e-16 -0.0692182 -0.002 0.010433 
-0.0668901 -0.002 0.0206329 -0.0630678 -0.002 0.0303719 -0.0578367 -0.002 0.0394324 
-0.0513136 -0.002 0.0476121 -0.0436443 -0.002 0.0547282 -0.035 -0.002 0.0606218 
-0.0255739 -0.002 0.0651612 -0.0155765 -0.002 0.068245 -0.00523111 -0.002 0.0698043 
0.010433 0 0.0692182 0.0206329 0 0.0668901 0.0303719 0 0.0630678 
0.0394324 0 0.0578367 0.0476121 0 0.0513136 0.0547282 0 0.0436443 
0.0606218 0 0.035 0.0651612 0 0.0255739 0.068245 0 0.0155765 
0.0698043 0 0.00523111 0.0698043 0 -0.00523111 0.068245 0 -0.0155765 
0.0651612 0 -0.0255739 0.0606218 0 -0.035 0.0547282 0 -0.0436443 
0.0476121 0 -0.0513136 0.0394324 0 -0.0578367 0.0303719 0 -0.0630678 
0.0206329 0 -0.0668901 0.010433 0 -0.0692182 -3.33376e-16 0 -0.07 
-0.010433 0 -0.0692182 -0.0206329 0 -0.0668901 -0.0303719 0 -0.0630678 
-0.0394324 0 -0.0578367 -0.0476121 0 -0.0513136 -0.0547282 0 -0.0436443 
-0.0606218 0 -0.035 -0.0651612 0 -0.0255739 -0.068245 0 -0.0155765 
-0.0698043 0 -0.00523111 -0.0698043 0 0.00523111 -0.068245 0 0.0155765 
-0.0651612 0 0.0255739 -0.0606218 0 0.035 -0.0547282 0 0.0436443 
-0.0476121 0 0.0513136 -0.0394324 0 0.0578367 -0.0303719 0 0.0630678 
-0.0206329 0 0.0668901 -0.010433 0 0.0692182 0.00523111 0 0.0698043 
0.0155765 0 0.068245 0.0255739 0 0.0651612 0.035 0 0.0606218 
0.0436443 0 0.0547282 0.0513136 0 0.0476121 0.0578367 0 0.0394324 
0.0630678 0 0.0303719 0.0668901 0 0.0206329 0.0692182 0 0.010433 
0.07 0 -1.20059e-16 0.0692182 0 -0.010433 0.0668901 0 -0.0206329 
0.0630678 0 -0.0303719 0.0578367 0 -0.0394324 0.0513136 0 -0.0476121 
0.0436443 0 -0.0547282 0.035 0 -0.0606218 0.0255739 0 -0.0651612 
0.0155765 0 -0.068245 0.00523111 0 -0.0698043 -0.00523111 0 -0.0698043 
-0.0155765 0 -0.068245 -0.0255739 0 -0.0651612 -0.035 0 -0.0606218 
-0.0436443 0 -0.0547282 -0.0513136 0 -0.0476121 -0.0578367 0 -0.0394324 
-0.0630678 0 -0.0303719 -0.0668901 0 -0.0206329 -0.0692182 0 -0.010433 
-0.07 0 2.35832e-16 -0.0692182 0 0.010433 -0.0668901 0 0.0206329 
-0.0630678 0 0.0303719 -0.0578367 0 0.0394324 -0.0513136 0 0.0476121 
-0.0436443 0 0.0547282 -0.035 0 0.0606218 -0.0255739 0 0.0651612 
-0.0155765 0 0.068245 -0.00523111 0 0.0698043 0.0069611 0 -0.0179687 
-0.0101443 0 0.0163836 0.0153777 0 0.0116127 -0.0183792 0 -0.00847681 
-0.0194272 0 0.00499658 0.0191877 0 -0.001778 -0.0069611 0 -0.0179687 
0.00290038 0 0.0200085 -0.0142977 0 -0.0148349 0.0199432 0 -0.00993052 
0.0104731 0 -0.00795942 0.0109529 0 0.00291258 0.0014194 0 -0.00144615 
0.00388159 0 0.00972387 -0.00811236 0 0.00575657 -0.00807484 0 -0.00613785 
0.000506655 0 -0.0119527 0.0207338 0 0.00587849 0.0150622 0 -0.0161476 
-2.54417e-18 0 -0.0222788 -0.0221838 0 -0.00205563 -0.00409372 0 0.0218995 
0.0104325 0 0.0179603 -0.0169604 0 0.0126192 -0.0146484 0 -0.00127416 
-0.0029374 0 0.0145569 0.00668639 0 0.0235204 0.00145019 0 0.0244992 
-0.00204686 0 0.0254447 -0.00728306 0 0.0244659 -0.000596671 0 0.020954 
0.0149815 0 0.0196921 0.0104525 0 0.0224963 0.00666644 0 0.0189844 
0.0206643 0 0.0122673 0.0174541 0 0.0165183 0.0129051 0 0.0147865 
0.0248001 0 0.00427667 0.0233423 0 0.00940022 0.0180558 0 0.00874561 
0.0235355 0 -0.00485575 0.024027 0 0.000448427 0.0199608 0 0.00205024 
0.0215388 0 -0.0137004 0.0239132 0 -0.008932 0.0195654 0 -0.00585426 
0.0151617 0 -0.0203977 0.0190983 0 -0.016809 0.0175027 0 -0.0130391 
0.006144 0 -0.0232325 0.0111112 0 -0.0213082 0.0110116 0 -0.0170581 
-0.00266345 0 -0.0253876 0.00266345 0 -0.0253876 0.00348055 0 -0.0201237 
-0.0111112 0 -0.0213082 -0.006144 0 -0.0232325 -0.00348055 0 -0.0201237 
-0.0187161 0 -0.0161526 -0.0147795 0 -0.0197414 -0.0106294 0 -0.0164018 
-0.0231312 0 -0.00820515 -0.0207568 0 -0.0129736 -0.0163384 0 -0.0116559 
-0.0255251 0 0.000309615 -0.0250335 0 -0.00499456 -0.0202815 0 -0.00526622 
-0.022689 0 0.00895927 -0.0241467 0 0.00383572 -0.0208055 0 0.00147047 
-0.0182454 0 0.0170215 -0.0214556 0 0.0127706 -0.0181938 0 0.0088079 
-0.0103084 0 0.021708 -0.0148374 0 0.0189037 -0.0135524 0 0.0145014 
-0.00711902 0 0.0191415 0.00373388 0 -0.0149607 0.00548985 0 -0.00995606 
0.00871708 0 -0.012964 0.0127676 0 -0.0120535 0.000253328 0 -0.0171158 
-0.0125364 0 0.0091879 -0.00912834 0 0.0110701 -0.00654086 0 0.0154703 
-0.00552488 0 0.0101567 -0.00351556 0 0.0182282 0.00741725 0 0.00631822 
0.00962966 0 0.0106683 0.0131653 0 0.00726265 0.0158434 0 0.00439553 
0.00715705 0 0.0138421 -0.013227 0 -0.00730733 -0.0111863 0 -0.0104864 
-0.0165138 0 -0.00487549 -0.0113616 0 -0.00370601 -0.0184161 0 -0.00166489 
-0.0137698 0 0.00537657 -0.0113804 0 0.0022412 -0.0170378 0 0.00186121 
0.0152081 0 -0.00894497 0.0148304 0 -0.00486871 0.010713 0 -0.00252342 
0.0150703 0 0.000567286 -0.00751797 0 -0.0120533 -0.00378409 0 -0.00904528 
-0.00322722 0 -0.0149607 0.00339098 0 0.0148662 0.000472093 0 0.0121404 
-1.85103e-05 0 0.0172827 0.00594622 0 -0.00470278 0.00618615 0 0.000733211 
0.000963026 0 -0.00669943 0.00265049 0 0.00413886 -0.00334648 0 0.00215521 
-0.00211539 0 0.00774022 -0.00332772 0 -0.003792 -0.0080936 0 -0.000190643 
3.92446e-18 0.00851602 -0.0320467 -0.03191 0.00851602 -0.0029569 0.0319553 0.00862944 -0.0027924 
-0.00012216 0.0639368 -0.0153343 -0.0129534 0.0613826 -0.0125553 0.0126396 0.0619346 -0.0120823 
-0.021798 0.00895924 -0.0236505 0.0215897 0.00851602 -0.0236828 -0.0114627 0.0444284 0.0271427 
0.0135849 0.0421258 0.0271868 -0.00562496 0.0558022 -0.022162 -0.0260989 0.0103635 0.0193813 
0.0257461 0.00870028 0.0191646 -0.0174038 0.0516515 -0.0189158 -0.0102946 0.0453349 -0.0271806 
-0.0207565 0.0405396 -0.0229747 -0.0260614 0.0451146 -0.0130888 -0.0172493 0.062143 -0.000887935 
0.00182666 0.0477325 -0.0278527 -0.00219597 0.0371863 -0.0319166 0.00972925 0.0389846 -0.0299273 
-0.0287021 0.0341049 -0.0157442 -0.0314597 0.0375571 -0.00521867 0.0169325 0.0624479 -0.000887658 
0.0226689 0.0540194 -0.00833594 0.0250866 0.052071 0.00423639 0.0293682 0.0440501 -0.00389059 
[...]
POINT_DATA 5064
VECTORS displacement float
7.86354e-05 2.8388e-05 -0.00214109
-3.94364e-05 0.000966942 -0.0355778
-0.000100448 0.000263886 -0.00300035
3.68365e-05 -3.67561e-05 -0.0360723
0 0 0
-9.80654e-05 0.0012376 -0.0131676
-6.37233e-06 0.00295737 -0.021477
-1.57226e-05 0.00373113 -0.0274391
1.24533e-05 0.00354602 -0.0313579
5.65921e-05 0.00258727 -0.034014
2.52559e-06 0.000511552 -0.00812983
-8.58538e-05 0.00207944 -0.0176943
-1.07956e-05 0.00345698 -0.0248449
2.24884e-05 0.00368583 -0.0296925
3.71428e-05 0.00308347 -0.0329256
-7.72637e-06 0.00182192 -0.0349002
-6.81452e-06 0.00250995 -0.0350359
1.37367e-05 0.00356826 -0.0339935
-3.56842e-05 0.00437518 -0.032466
3.15914e-05 0.00474642 -0.0306908
1.6131e-06 0.00455361 -0.0284023
2.52387e-05 0.00429333 -0.0252892
2.54074e-05 0.00365693 -0.0210499
-0.00011244 0.00230019 -0.0145604
-4.82821e-06 0.00174842 -0.0353742
1.37874e-05 0.00309501 -0.0345781
-3.10388e-06 0.00402395 -0.03327
-5.16973e-06 0.00452715 -0.0317016
2.11033e-05 0.00465838 -0.0295934
3.40074e-06 0.00443637 -0.0269693
-1.14043e-05 0.00399116 -0.0234253
3.6505e-05 0.00333686 -0.0180536
3.73673e-05 0.00125247 -0.00923451
6.24113e-06 0.000584088 -0.0357948
-4.91712e-05 0.00012267 -0.00173975
-2.53741e-05 1.21038e-05 -0.00209375
-0.000227389 5.33456e-05 -0.00218917
-0.000319861 3.64438e-06 -0.00205062
-0.00022917 2.27804e-05 -0.00192591
-0.000172557 1.25703e-05 -0.00224853
-9.07808e-05 2.0849e-05 -0.00185701
-3.67793e-05 6.81442e-06 -0.00212243
1.51185e-06 3.97111e-05 -0.00198773
8.70394e-05 -4.47446e-06 -0.00197805
0.00020125 1.07859e-05 -0.00203255
0.000181225 1.01676e-05 -0.00215265
0.00021314 -1.3631e-05 -0.00206291
0.000258862 2.39053e-05 -0.00197715
0.000157529 1.69809e-05 -0.00210278
4.58756e-05 -3.42532e-06 -0.00218729
-8.25997e-06 -7.51019e-06 -0.00214154
6.43612e-05 4.85765e-05 -0.00217533
-0.000120985 2.67278e-05 -0.00215274
-0.000266008 4.49122e-05 -0.00210366
-0.000268324 -1.70706e-06 -0.0020012
-0.000198418 1.3555e-05 -0.00209552
-0.000196252 3.01204e-05 -0.0020852
-0.000144795 5.33789e-07 -0.00197213
-1.70521e-05 3.15007e-05 -0.00203976
-7.001e-07 1.24827e-05 -0.00192883
0.000137584 -3.87134e-06 -0.0019782
0.00021233 1.71129e-05 -0.0020992
0.000228799 -9.47493e-06 -0.00210654
0.000227719 1.00141e-05 -0.00198905
0.000183455 2.62431e-05 -0.00205127
0.000143274 1.25386e-05 -0.00218129
2.26804e-05 -3.49018e-06 -0.00215441
2.09314e-05 3.4387e-06 -0.00220507
-1.04863e-05 -0.000334373 -0.0354828
7.47048e-05 -0.000608123 -0.035526
-5.35935e-05 0.000541056 -0.0355008
1.6265e-05 -0.00109465 -0.035486
8.9945e-05 0.000432524 -0.035534
0 0 0
0 0 0
0 0 0
0 0 0
0 0 0
0 0 0
0 0 0
0 0 0
0 0 0
0 0 0
0 0 0
0 0 0
0 0 0
0 0 0
0 0 0
0 0 0
0 0 0
0 0 0
0 0 0
0 0 0
0 0 0
0 0 0
0 0 0
0 0 0
0 0 0
0 0 0
0 0 0
0 0 0
0 0 0
0 0 0
0 0 0
0 0 0
0 0 0
0 0 0
0 0 0
0 0 0
0 0 0
0 0 0
0 0 0
0 0 0
0 0 0
0 0 0
0 0 0
0 0 0
0 0 0
0 0 0
0 0 0
0 0 0
0 0 0
0 0 0
0 0 0
0 0 0
0 0 0
0 0 0
0 0 0
0 0 0
0 0 0
0 0 0
0 0 0
0 0 0
0 0 0
0 0 0
0 0 0
0 0 0
0 0 0
0 0 0
0 0 0
0 0 0
0 0 0
0 0 0
0 0 0
0 0 0
0 0 0
0 0 0
0 0 0
0 0 0
0 0 0
0 0 0
0 0 0
0 0 0
0 0 0
0 0 0
0 0 0
-0.000366043 0.000212279 -0.00329918
-0.000814634 0.000190809 -0.00319465
-0.00112699 0.000214464 -0.00266501
-0.00144384 0.000200053 -0.00270611
-0.00163953 0.000158615 -0.00243061
-0.00147818 0.000224056 -0.00191942
-0.0016941 0.000162725 -0.00171701
-0.00132171 0.000155814 -0.00129285
-0.00133041 0.000118804 -0.00120114
-0.000974929 7.2471e-05 -0.00101614
-0.000562989 4.13753e-05 -0.000977343
-0.000104851 -1.35193e-05 -0.0010001
0.000209156 -9.84895e-05 -0.00131847
0.000433359 -0.000223452 -0.00142977
0.000636321 -0.000295024 -0.00212778
0.000638608 -0.00040398 -0.00211641
0.000664374 -0.000426868 -0.00252254
0.000213736 -0.000442116 -0.00240987
0.000742909 -0.000631134 -0.0034033
-0.0001416 -0.000460536 -0.00284126
1.58702e-05 -0.000515899 -0.00266071
-9.96225e-05 -0.00061327 -0.00304761
-0.000442189 -0.000453808 -0.00319172
-0.000897612 -0.000487191 -0.00303213
-0.000845753 -0.000435557 -0.00264321
-0.000852863 -0.000416328 -0.00221165
-0.000539553 -0.00028963 -0.0019219
-0.000603799 -0.000204185 -0.00165546
-0.000187695 -0.00014445 -0.00129228
0.000145398 -3.08325e-05 -0.00105661
0.000512366 5.53349e-05 -0.000955276
0.000984042 8.72199e-05 -0.00104583
0.0013547 0.000109898 -0.00113158
0.00151511 0.00012789 -0.00150146
0.00133 0.000189404 -0.00147136
0.00135037 0.000194133 -0.00182516
0.00163279 0.000192457 -0.00237983
0.00148917 0.000153772 -0.00278339
0.00118406 0.000222884 -0.00305331
0.000774888 0.000200051 -0.00327048
0.00036943 0.000263117 -0.00317531
-0.00022884 0.000284769 -0.00329645
-0.000590803 0.000290052 -0.00333077
-0.000986047 0.000264796 -0.00308904
-0.00124911 0.000292421 -0.00276703
-0.00154054 0.000273336 -0.00262663
-0.00158282 0.000292591 -0.00222591
-0.0016005 0.000262394 -0.00182924
-0.00153246 0.000221365 -0.00150657
-0.00139554 0.000181615 -0.00127366
-0.00117988 0.000154415 -0.00111776
-0.000763646 7.93537e-05 -0.00099409
-0.000317203 3.55854e-05 -0.000995213
1.34944e-05 -4.11133e-05 -0.00115685
0.000458302 -0.000129273 -0.00143955
0.000625711 -0.000242021 -0.00190131
0.0007609 -0.00032899 -0.00221184
0.000840307 -0.000393569 -0.00266963
0.000554655 -0.000462798 -0.00297474
0.000608582 -0.000555194 -0.00305578
0.000287901 -0.000481702 -0.00371913
0.000307242 -0.000522561 -0.00386001
0.000247445 -0.000576346 -0.00354977
-0.000564613 -0.000540878 -0.00344042
-0.000826427 -0.000462024 -0.0033395
-0.000956438 -0.000464067 -0.00297428
-0.000876256 -0.000419294 -0.00253129
-0.000752076 -0.000362409 -0.00199932
-0.000698882 -0.000221498 -0.00182151
-0.000368332 -0.000171528 -0.00143889
-6.37296e-05 -6.41649e-05 -0.00116023
0.000296718 3.98129e-05 -0.000965049
0.000746301 0.000142291 -0.000944968
0.00112147 0.000154509 -0.00109359
0.00146521 0.000231207 -0.00132299
0.00145068 0.000233946 -0.00152498
0.00137974 0.000236154 -0.00171462
0.00150596 0.00030492 -0.00203383
0.00152238 0.000279397 -0.00259866
0.00135962 0.000305917 -0.00299976
0.00101274 0.000286422 -0.00316408
0.000539363 0.000277661 -0.00321241
0.000226734 0.000356528 -0.00305436
-9.05257e-05 6.43344e-05 -0.00248991
4.34116e-05 -1.56072e-05 -0.00265542
-0.000165927 -3.62335e-05 -0.00272039
0.000181743 3.43789e-05 -0.00257773
0.000199917 4.59956e-06 -0.00266845
-0.000254369 1.37703e-05 -0.00267246
2.98145e-05 6.74383e-05 -0.00241951
-8.06048e-05 -7.19016e-05 -0.0025135
0.000161559 5.15211e-05 -0.00251722
-0.000174947 4.99282e-05 -0.00239482
-0.000146643 1.26076e-05 -0.00273317
-8.33081e-05 1.74549e-06 -0.00279457
-6.97631e-05 2.09958e-05 -0.00283737
9.64244e-05 -6.28608e-06 -0.00289346
0.000109548 3.25389e-06 -0.00284902
9.61667e-05 4.41921e-05 -0.00282192
1.665e-05 2.95221e-05 -0.00270631
-0.000208673 -1.10948e-05 -0.00267951
-0.000156839 5.19e-05 -0.0024105
1.93203e-05 7.69161e-05 -0.0022947
0.000134813 6.59002e-06 -0.00245304
3.5372e-05 -6.31816e-05 -0.00249887
-4.11662e-05 -7.53374e-05 -0.00248369
6.78414e-05 -2.68274e-05 -0.00267846
0.000173006 3.24901e-05 -0.00286791
5.08494e-05 -3.0406e-05 -0.00287208
7.72126e-06 -4.0483e-05 -0.00230733
1.97392e-05 -3.81034e-05 -0.00222997
3.41219e-05 -4.96148e-05 -0.00225772
-2.11185e-05 -5.52606e-05 -0.00230988
-5.59677e-06 -5.96477e-05 -0.00247733
-5.11098e-05 -2.44074e-06 -0.00233309
-6.18969e-06 -5.21167e-05 -0.00222754
-4.79469e-05 -6.41988e-05 -0.00255647
-0.000205507 -1.96387e-05 -0.00243993
-0.000113304 -1.8447e-05 -0.00242971
-8.23753e-05 -4.76567e-05 -0.00261303
-0.000226615 8.9935e-06 -0.00235096
-0.000248938 -1.62524e-05 -0.00238004
-0.000183345 -1.92756e-05 -0.00271857
-0.00018957 3.10907e-06 -0.00243933
-0.000156157 -2.13563e-07 -0.00240807
-0.000184958 1.94954e-05 -0.00271398
-0.000257107 2.93207e-05 -0.0021308
-0.000151129 5.56418e-05 -0.00234015
-0.000177958 3.9811e-05 -0.002569
-0.000192833 4.12608e-05 -0.00224229
-0.000153284 4.13267e-05 -0.00214418
-0.000196861 5.41551e-05 -0.00240814
-4.35204e-05 4.1356e-05 -0.00223058
-9.70249e-05 5.35359e-05 -0.0023177
-0.000134229 5.92433e-05 -0.00249033
4.97612e-05 4.35055e-05 -0.00206601
1.22596e-05 8.30873e-05 -0.00213117
-2.78568e-05 6.38464e-05 -0.00238954
0.000145188 7.70938e-05 -0.00222695
5.71337e-05 7.05003e-05 -0.00218358
2.00562e-05 5.94359e-05 -0.00230893
0.000208863 4.2803e-05 -0.00239502
0.000190568 6.65107e-05 -0.00227101
0.000101153 5.94822e-05 -0.00246081
0.000224286 3.33814e-05 -0.00237157
0.000244636 3.04593e-05 -0.00237424
0.000189553 3.42501e-05 -0.00253998
0.000166649 6.72072e-06 -0.00220377
0.000211243 1.45636e-05 -0.00229395
0.000169137 2.07643e-05 -0.00253548
9.86095e-05 4.51134e-07 -0.00236544
0.000245461 1.92749e-06 -0.00232332
0.000187584 1.23172e-05 -0.00260567
-7.31164e-07 -1.713e-05 -0.00248252
9.21914e-05 -1.68957e-05 -0.00241533
6.74432e-05 -3.35191e-06 -0.00267453
-9.17425e-06 -4.6941e-05 -0.00241856
-5.60769e-06 -3.97958e-05 -0.00247959
3.83982e-05 -3.27704e-05 -0.00267857
3.63777e-05 -4.2373e-05 -0.00256681
-4.67781e-05 4.62365e-05 -0.00260797
-4.54111e-05 4.49896e-05 -0.00276269
-0.00010397 5.91317e-05 -0.00267706
-0.000166446 4.49829e-05 -0.00263428
-1.29272e-05 6.20824e-05 -0.0025257
4.92075e-05 2.04189e-06 -0.00285714
4.67398e-05 -1.03705e-05 -0.00281856
4.25989e-05 -2.69292e-05 -0.00274192
8.85528e-05 -3.77108e-06 -0.00288003
3.91805e-05 -4.56682e-05 -0.00271491
1.01224e-05 1.40286e-05 -0.00284501
-2.74509e-06 -1.33427e-06 -0.00282555
-6.23505e-05 2.32527e-05 -0.00281748
-0.000115781 2.23119e-05 -0.00279224
8.62719e-05 -1.92476e-05 -0.00271225
0.000172912 3.43779e-05 -0.00275483
0.000159706 5.51884e-05 -0.00272127
0.000201942 3.25466e-05 -0.00274641
0.000125911 3.8714e-05 -0.00285977
0.000170784 1.28505e-05 -0.00271733
0.000149632 5.91739e-06 -0.00285039
0.000141269 1.54662e-05 -0.00288001
0.000191952 5.57196e-06 -0.00280206
-0.00018275 2.74567e-05 -0.00266567
-0.00017858 2.50634e-05 -0.00276088
-0.000101844 2.23636e-05 -0.00279201
-0.000161122 1.31939e-05 -0.00275417
0.000100459 6.60581e-05 -0.00264376
5.24502e-05 3.92416e-05 -0.0027827
2.06879e-05 5.72426e-05 -0.00256301
5.92571e-05 -3.92404e-05 -0.00277554
7.42939e-05 -5.53354e-06 -0.00288833
5.45191e-06 -5.04168e-05 -0.00274604
-8.83862e-05 1.43929e-05 -0.00277844
-6.43726e-05 1.64206e-05 -0.00284919
-3.05362e-06 1.89573e-05 -0.00279089
3.56833e-06 7.87824e-06 -0.00288839
8.42386e-06 1.93593e-05 -0.00284499
0.000107114 1.16238e-05 -0.00286884
1.87714e-05 2.37905e-05 -0.00284018
8.14363e-05 1.83661e-05 -0.00286193
2.54026e-05 -0.000482604 -0.00916806
0.000746672 0.000210313 -0.00868969
-0.000722355 0.000217827 -0.00875149
-2.82103e-06 -0.00222606 -0.0344477
-4.19732e-05 -0.00175886 -0.0337191
3.46067e-05 -0.00167912 -0.0339015
3.88612e-05 -0.000307456 -0.00925836
-7.00526e-05 -0.000257522 -0.00881084
0.000617118 0.0034954 -0.0292364
-0.000736468 0.00344762 -0.0284173
-5.43444e-05 -0.00304141 -0.0325297
0.00138218 0.000663653 -0.0106837
-0.00107796 0.000692232 -0.00942567
-0.000153112 -0.00236905 -0.0311421
-0.000190459 -0.00321791 -0.0293692
-0.000177782 -0.00235592 -0.0272051
1.39338e-05 -0.00127292 -0.0286422
0.000140708 -7.13532e-05 -0.0338233
4.75921e-05 -0.00351481 -0.0302423
-6.23885e-05 -0.00322705 -0.0262172
0.000161877 -0.00307124 -0.0268845
0.000118795 -0.00109589 -0.024064
0.000500547 -0.000114318 -0.0254127
-0.000136866 -9.4636e-05 -0.0339105
-6.73228e-05 -0.000969803 -0.0316293
-0.000470923 0.000795881 -0.0310008
-0.00040754 -9.02812e-05 -0.0281068
-0.000880592 0.00143093 -0.0274157
-0.000853789 0.000566965 -0.023133
-0.000304258 -0.000671416 -0.0235715
-0.0012719 0.00162974 -0.0221123
-7.15065e-05 -0.00163969 -0.0214006
0.000792269 0.00188127 -0.016761
-0.000868265 0.00199733 -0.0169608
0.000144542 -0.00238234 -0.0219104
0.000236222 -0.00213468 -0.0221651
-3.76471e-05 -0.00223516 -0.0209016
0.00064137 -7.54295e-05 -0.0199934
0.00103761 0.000839297 -0.0217636
0.000844684 0.00120017 -0.0268697
0.00135499 0.00182916 -0.0233592
0.000189704 -0.00259481 -0.0273875
0.000178967 -0.00133144 -0.0163627
-0.000579748 -1.28558e-05 -0.0190742
-0.000174128 -0.000818345 -0.019166
0.00142826 0.00123155 -0.0167494
0.00145118 0.00193075 -0.018391
-0.00117378 0.00253846 -0.0261654
-0.00139954 0.00229221 -0.0210107
0.000962692 0.00244254 -0.0280112
-0.000390532 0.00174126 -0.0332034
-0.000772415 0.0024254 -0.0300708
-3.26081e-05 -0.000378004 -0.00913578
0.000309941 -3.90966e-05 -0.00858931
-0.000302094 3.36608e-05 -0.00824337
-0.00114341 0.000468462 -0.00952708
0.000589706 0.00135566 -0.030517
0.000107155 -0.000571458 -0.0148829
-0.00089391 0.000701502 -0.0096856
0.000943701 0.000661432 -0.00971219
0.000114161 -0.00245312 -0.0311268
-0.000162871 -0.00107392 -0.0153923
0.0011458 0.000498587 -0.00929315
-0.00148619 0.00126574 -0.015973
-0.00107371 0.000676868 -0.0162566
0.000529768 0.00239218 -0.0316927
0.00119791 0.00294329 -0.0246553
0.000263005 0.00177117 -0.034269
5.06392e-05 -0.00102538 -0.0165166
-0.000725449 0.00316178 -0.023492
-6.08463e-06 -0.00159283 -0.0280968
-0.000195875 -0.00266884 -0.0248127
3.60448e-05 -0.000283085 -0.0088031
0.00104423 0.00048678 -0.0155211
4.40369e-05 -0.00299053 -0.0325109
4.85164e-05 -0.000923509 -0.0320215
0.000314541 1.3714e-05 -0.0297354
8.29625e-05 -0.00132187 -0.0155658
0.00069298 0.00319377 -0.0239324
-0.000474384 0.00313586 -0.0313887
-0.00139122 0.00163269 -0.0151742
-8.06878e-05 -0.00124519 -0.0152019
0.000514741 -3.32285e-05 -0.0149223
-0.000165407 0.00141771 -0.034641
0.00010987 -0.0016288 -0.0230549
0.00120026 0.00240641 -0.0200537
0.000419868 0.000516309 -0.00956226
-0.000483482 0.000722432 -0.00992555
-0.000201455 -0.000385053 -0.0135646
-0.000579538 -1.40512e-05 -0.0135531
-0.00114673 0.00297246 -0.0244384
0.00134671 0.00140467 -0.0149527
0.000325228 0.00294686 -0.0325117
0.000150706 -0.00320016 -0.029955
-9.02298e-05 -0.00193077 -0.0201426
-0.00122789 0.00254923 -0.0204454
0.000210448 -0.000695633 -0.0194094
8.67309e-05 -0.000757584 -0.0127501
0.000400643 0.00125752 -0.0325916
0.000262213 0.000271835 -0.0318979
0.000196761 9.251e-05 -0.00579646
0.000200765 0.000831716 -0.0114262
-0.000333316 0.000975903 -0.0115798
-0.000109369 0.00021033 -0.00601127
-0.000286675 0.000189041 -0.00602747
0.00030015 7.605e-05 -0.00576211
0.00015856 0.00226473 -0.0342033
0.000131421 0.00145922 -0.0350422
-9.1918e-05 0.00132801 -0.0351722
-8.75848e-05 0.00210476 -0.0344362
-0.000115684 0.000600764 -0.0350131
0.000166129 0.000718702 -0.034764
0.000327266 0.00151206 -0.0149869
0.000380577 0.00246802 -0.0192914
-0.000485405 0.00248767 -0.0193729
-0.000477474 0.00161851 -0.0151995
0.00060392 0.00116254 -0.0133122
-0.000726768 0.0013256 -0.0135895
-0.000377733 0.00351706 -0.0257025
-0.000371143 0.00311326 -0.0227336
0.00036511 0.00312427 -0.0228467
0.000364538 0.00349224 -0.0259426
0.000751125 0.00263513 -0.0206294
-0.000840192 0.00265237 -0.0204398
0.000322915 0.00365605 -0.0284676
0.000303612 0.00354501 -0.0304768
-0.000349682 0.00355409 -0.0302167
-0.000426658 0.00364416 -0.0281118
0.000695788 0.00344434 -0.0268929
-0.000757364 0.00342488 -0.0262284
-0.000196637 0.00293862 -0.0329182
-0.000242887 0.003402 -0.0315616
0.000184591 0.00333888 -0.0320511
0.000191641 0.00284628 -0.0333305
0.000413802 0.00327883 -0.031114
-0.000631514 0.00329627 -0.0300907
-0.000209358 0.00233842 -0.0337457
-0.000451438 0.00253366 -0.0323751
-0.000270558 0.00157437 -0.0339807
0.000291448 0.00246586 -0.0334496
-0.000437922 0.000179372 -0.00599414
-0.000588485 0.000255591 -0.00592414
-0.000662741 0.000693608 -0.00970925
-0.000732225 0.000228004 -0.0059717
-0.000794911 0.000161084 -0.00575463
-0.000981146 0.00066831 -0.00942889
-0.000839737 7.06951e-05 -0.00584762
-0.000688181 0.000130877 -0.00574319
-0.00112747 0.000545375 -0.00933684
-0.000547034 6.6355e-05 -0.00537752
-0.000432177 5.40179e-05 -0.00543757
-0.000895132 0.000322312 -0.00898656
-0.000322552 0.000120214 -0.00521441
-0.000228417 7.29437e-05 -0.00511558
-0.00047661 8.69152e-05 -0.00833137
-0.000202241 -7.34922e-05 -0.00535505
-8.83153e-05 -6.80748e-05 -0.00546847
-0.000183948 -0.000135151 -0.00839619
-9.44876e-05 3.95758e-06 -0.00545527
-5.71205e-05 -3.87188e-05 -0.00542897
-1.34869e-05 -0.000269508 -0.00864997
-1.27564e-05 -9.39735e-05 -0.0056505
6.45719e-05 -8.00058e-05 -0.00557127
5.46078e-05 -0.000373943 -0.00886151
7.30191e-05 -7.07225e-05 -0.00564137
8.67094e-05 -3.53711e-05 -0.00563151
9.51553e-06 -0.000418165 -0.00902572
0.000129076 -9.37328e-06 -0.0057936
0.000204516 1.17326e-05 -0.00572667
-2.6391e-05 -0.000348816 -0.0091363
0.00024278 -2.41923e-06 -0.00536949
0.000358127 -2.02654e-05 -0.00531277
0.000160741 -0.000170566 -0.0087794
0.000476853 5.98824e-06 -0.0052962
0.00059802 0.000137322 -0.00532914
0.000520245 1.091e-05 -0.00847659
0.000673122 0.000151381 -0.00556371
0.000702742 0.00018522 -0.00562843
0.000931648 0.000336098 -0.0088373
0.000821786 0.000191827 -0.00627283
0.000849583 0.000137389 -0.00648543
0.00128847 0.000576655 -0.00984666
0.000658311 0.000182764 -0.00584882
0.000490003 0.000166201 -0.00595697
0.00117753 0.000599069 -0.0101186
0.000671647 0.000561195 -0.0095531
1.89686e-05 -0.00161234 -0.0350661
-1.47698e-05 -0.00156131 -0.0350196
1.96022e-05 -0.00208364 -0.0342054
-1.22639e-05 -0.00113942 -0.0348594
-4.53786e-05 -0.000943534 -0.0339764
-8.4181e-05 -0.000251514 -0.0348052
-0.00020542 0.000732356 -0.034182
6.1141e-06 -0.00124958 -0.0347339
-3.93108e-05 -0.00209887 -0.0341819
9.61048e-05 -0.000348658 -0.0347648
1.152e-05 -0.000942013 -0.0338608
0.000238936 0.000956081 -0.0338224
-3.20869e-05 -0.000826052 -0.0121903
-6.3141e-05 -0.000767276 -0.0121814
5.26749e-05 -0.000764298 -0.0122431
2.39846e-05 -0.000861533 -0.0123827
-6.93489e-06 -0.0012992 -0.0152702
0.000437308 -6.76934e-05 -0.0117859
0.000667948 0.000127544 -0.0118474
0.000909529 0.000342984 -0.0121911
0.00111056 0.000594185 -0.0124564
0.000811512 0.000217237 -0.015166
-0.00065273 0.000151719 -0.0111437
-0.000457853 -1.14819e-05 -0.0109242
-0.0012238 0.000679785 -0.0129834
-0.000931618 0.000435794 -0.0125783
-0.000843179 0.000276581 -0.0148377
-5.75141e-05 -0.00249162 -0.0331914
-3.00397e-05 -0.00268643 -0.0335782
2.63133e-05 -0.00266347 -0.0335957
6.15826e-05 -0.00242791 -0.0331905
-1.03928e-05 -0.00310512 -0.0325968
-6.79801e-05 -0.00214734 -0.0325026
-0.000120694 -0.00279713 -0.0319527
-1.85623e-05 -0.00137772 -0.0329212
-5.21668e-05 -0.00170974 -0.0316372
8.79103e-05 -0.000504325 -0.0329849
1.69657e-09 -0.00139447 -0.0328147
-0.00010861 -0.00053505 -0.0329007
7.97666e-05 -0.00212593 -0.0326422
3.14708e-05 -0.00177766 -0.0314054
0.000112768 -0.00275762 -0.0318636
-9.95805e-05 -0.000713318 -0.012335
-3.14771e-05 -0.00063834 -0.0123669
9.23512e-05 -0.000440327 -0.0120607
0.000228073 -0.00026149 -0.0117615
-3.55691e-05 -0.000825717 -0.01508
-0.000305385 -0.000134233 -0.0109621
-0.000114951 -0.000359733 -0.0112398
2.74141e-07 -0.000580116 -0.0128236
-7.02048e-05 -0.000689134 -0.0149767
7.69029e-05 -0.000912626 -0.0146875
1.24413e-05 -0.000461941 -0.0107649
6.04859e-05 -0.000522746 -0.0107972
0.000874626 0.00299909 -0.0288066
0.000768563 0.00241573 -0.0300542
0.000603134 0.00301264 -0.0306646
0.000952054 0.00324015 -0.0272484
0.00111883 0.00279087 -0.0265085
0.000438634 0.00265651 -0.0322389
0.000994888 0.00304076 -0.0243795
-0.00101775 0.00300636 -0.0274597
-0.000834561 0.00298035 -0.0293667
-0.000992856 0.00252238 -0.0282511
-0.00118976 0.00280261 -0.0253426
-0.000981754 0.00323478 -0.0266404
-0.000657276 0.00279022 -0.0308675
-0.000974396 0.0030881 -0.0240533
-0.000201322 -0.00291315 -0.0303034
-9.75508e-05 -0.00324218 -0.0311176
-5.89917e-05 -0.00347962 -0.0299427
-1.0351e-05 -0.00337174 -0.0315342
5.90853e-05 -0.00331558 -0.0314985
0.00142187 0.00101451 -0.0137446
0.00146068 0.00157177 -0.0175242
0.00144016 0.00129431 -0.014783
0.00130149 0.000843186 -0.013113
0.00144724 0.0016596 -0.0167776
0.00132932 0.000999142 -0.0127852
0.00114342 0.00100119 -0.0124231
-0.00141666 0.00104173 -0.012811
-0.00137202 0.000836388 -0.0127794
-0.00121478 0.00116301 -0.0125488
-0.00133071 0.00114719 -0.0123269
-0.00151542 0.00149325 -0.0155688
-0.000149364 -0.00245535 -0.029377